# vtk DataFile Version 2.0
classy_blocks debug output
ASCII

DATASET UNSTRUCTURED_GRID
POINTS 178 float
-0.0042928932188134525 -0.0042928932188134525 0.0
-0.003 -0.003 0.0
-0.007000000000000001 -0.0029999999999999996 0.0
-0.005707106781186548 -0.0042928932188134525 0.0
-0.0042928932188134525 -0.0042928932188134525 0.001
-0.003 -0.003 0.001
-0.007000000000000001 -0.0029999999999999996 0.001
-0.005707106781186548 -0.0042928932188134525 0.001
-0.007000000000000001 -0.006999999999999999 0.0
-0.005707106781186548 -0.005707106781186548 0.0
-0.007000000000000001 -0.006999999999999999 0.001
-0.005707106781186548 -0.005707106781186548 0.001
-0.0030000000000000005 -0.007000000000000001 0.0
-0.0042928932188134525 -0.005707106781186548 0.0
-0.0030000000000000005 -0.007000000000000001 0.001
-0.0042928932188134525 -0.005707106781186548 0.001
-0.0002928932188134524 -0.0042928932188134525 0.0
0.001 -0.003 0.0
-0.0017071067811865476 -0.0042928932188134525 0.0
-0.0002928932188134524 -0.0042928932188134525 0.001
0.001 -0.003 0.001
-0.0017071067811865476 -0.0042928932188134525 0.001
-0.0017071067811865476 -0.005707106781186548 0.0
-0.0017071067811865476 -0.005707106781186548 0.001
0.0009999999999999996 -0.007000000000000001 0.0
-0.0002928932188134526 -0.005707106781186548 0.0
0.0009999999999999996 -0.007000000000000001 0.001
-0.0002928932188134526 -0.005707106781186548 0.001
0.0037071067811865477 -0.0042928932188134525 0.0
0.005 -0.003 0.0
0.0022928932188134524 -0.0042928932188134525 0.0
0.0037071067811865477 -0.0042928932188134525 0.001
0.005 -0.003 0.001
0.0022928932188134524 -0.0042928932188134525 0.001
0.0022928932188134524 -0.005707106781186548 0.0
0.0022928932188134524 -0.005707106781186548 0.001
0.004999999999999999 -0.007000000000000001 0.0
0.0037071067811865473 -0.005707106781186548 0.0
0.004999999999999999 -0.007000000000000001 0.001
0.0037071067811865473 -0.005707106781186548 0.001
0.007707106781186548 -0.0042928932188134525 0.0
0.009000000000000001 -0.003 0.0
0.0062928932188134525 -0.0042928932188134525 0.0
0.007707106781186548 -0.0042928932188134525 0.001
0.009000000000000001 -0.003 0.001
0.0062928932188134525 -0.0042928932188134525 0.001
0.0062928932188134525 -0.005707106781186547 0.0
0.0062928932188134525 -0.005707106781186547 0.001
0.009 -0.007000000000000001 0.0
0.007707106781186547 -0.005707106781186548 0.0
0.009 -0.007000000000000001 0.001
0.007707106781186547 -0.005707106781186548 0.001
-0.0042928932188134525 -0.0002928932188134524 0.0
-0.003 0.001 0.0
-0.007000000000000001 0.0010000000000000005 0.0
-0.005707106781186548 -0.0002928932188134523 0.0
-0.0042928932188134525 -0.0002928932188134524 0.001
-0.003 0.001 0.001
-0.007000000000000001 0.0010000000000000005 0.001
-0.005707106781186548 -0.0002928932188134523 0.001
-0.005707106781186548 -0.0017071067811865474 0.0
-0.005707106781186548 -0.0017071067811865474 0.001
-0.0042928932188134525 -0.0017071067811865476 0.0
-0.0042928932188134525 -0.0017071067811865476 0.001
-0.0002928932188134524 -0.0002928932188134524 0.0
0.001 0.001 0.0
-0.0017071067811865476 -0.0002928932188134523 0.0
-0.0002928932188134524 -0.0002928932188134524 0.001
0.001 0.001 0.001
-0.0017071067811865476 -0.0002928932188134523 0.001
-0.0017071067811865476 -0.0017071067811865474 0.0
-0.0017071067811865476 -0.0017071067811865474 0.001
-0.0002928932188134526 -0.0017071067811865476 0.0
-0.0002928932188134526 -0.0017071067811865476 0.001
0.0037071067811865477 -0.0002928932188134524 0.0
0.005 0.001 0.0
0.0022928932188134524 -0.0002928932188134523 0.0
0.0037071067811865477 -0.0002928932188134524 0.001
0.005 0.001 0.001
0.0022928932188134524 -0.0002928932188134523 0.001
0.0022928932188134524 -0.0017071067811865474 0.0
0.0022928932188134524 -0.0017071067811865474 0.001
0.0037071067811865473 -0.0017071067811865476 0.0
0.0037071067811865473 -0.0017071067811865476 0.001
0.007707106781186548 -0.0002928932188134526 0.0
0.009000000000000001 0.001 0.0
0.0062928932188134525 -0.0002928932188134522 0.0
0.007707106781186548 -0.0002928932188134526 0.001
0.009000000000000001 0.001 0.001
0.0062928932188134525 -0.0002928932188134522 0.001
0.0062928932188134525 -0.0017071067811865472 0.0
0.0062928932188134525 -0.0017071067811865472 0.001
0.007707106781186547 -0.0017071067811865479 0.0
0.007707106781186547 -0.0017071067811865479 0.001
-0.0042928932188134525 0.0037071067811865477 0.0
-0.003 0.005 0.0
-0.007000000000000001 0.005000000000000001 0.0
-0.005707106781186548 0.003707106781186548 0.0
-0.0042928932188134525 0.0037071067811865477 0.001
-0.003 0.005 0.001
-0.007000000000000001 0.005000000000000001 0.001
-0.005707106781186548 0.003707106781186548 0.001
-0.005707106781186548 0.0022928932188134524 0.0
-0.005707106781186548 0.0022928932188134524 0.001
-0.0042928932188134525 0.0022928932188134524 0.0
-0.0042928932188134525 0.0022928932188134524 0.001
-0.0002928932188134524 0.0037071067811865477 0.0
0.001 0.005 0.0
-0.0017071067811865476 0.003707106781186548 0.0
-0.0002928932188134524 0.0037071067811865477 0.001
0.001 0.005 0.001
-0.0017071067811865476 0.003707106781186548 0.001
-0.0017071067811865476 0.0022928932188134524 0.0
-0.0017071067811865476 0.0022928932188134524 0.001
-0.0002928932188134526 0.0022928932188134524 0.0
-0.0002928932188134526 0.0022928932188134524 0.001
0.0037071067811865477 0.0037071067811865477 0.0
0.005 0.005 0.0
0.0022928932188134524 0.003707106781186548 0.0
0.0037071067811865477 0.0037071067811865477 0.001
0.005 0.005 0.001
0.0022928932188134524 0.003707106781186548 0.001
0.0022928932188134524 0.0022928932188134524 0.0
0.0022928932188134524 0.0022928932188134524 0.001
0.0037071067811865473 0.0022928932188134524 0.0
0.0037071067811865473 0.0022928932188134524 0.001
0.007707106781186548 0.0037071067811865477 0.0
0.009000000000000001 0.005 0.0
0.0062928932188134525 0.0037071067811865477 0.0
0.007707106781186548 0.0037071067811865477 0.001
0.009000000000000001 0.005 0.001
0.0062928932188134525 0.0037071067811865477 0.001
0.0062928932188134525 0.002292893218813453 0.0
0.0062928932188134525 0.002292893218813453 0.001
0.007707106781186547 0.0022928932188134524 0.0
0.007707106781186547 0.0022928932188134524 0.001
-0.0042928932188134525 0.007707106781186548 0.0
-0.003 0.009000000000000001 0.0
-0.007000000000000001 0.009000000000000001 0.0
-0.005707106781186548 0.007707106781186548 0.0
-0.0042928932188134525 0.007707106781186548 0.001
-0.003 0.009000000000000001 0.001
-0.007000000000000001 0.009000000000000001 0.001
-0.005707106781186548 0.007707106781186548 0.001
-0.005707106781186548 0.0062928932188134525 0.0
-0.005707106781186548 0.0062928932188134525 0.001
-0.0042928932188134525 0.0062928932188134525 0.0
-0.0042928932188134525 0.0062928932188134525 0.001
-0.0002928932188134526 0.007707106781186548 0.0
0.001 0.009000000000000001 0.0
-0.0017071067811865479 0.007707106781186548 0.0
-0.0002928932188134526 0.007707106781186548 0.001
0.001 0.009000000000000001 0.001
-0.0017071067811865479 0.007707106781186548 0.001
-0.0017071067811865476 0.0062928932188134525 0.0
-0.0017071067811865476 0.0062928932188134525 0.001
-0.0002928932188134525 0.0062928932188134525 0.0
-0.0002928932188134525 0.0062928932188134525 0.001
0.0037071067811865477 0.007707106781186548 0.0
0.005 0.009000000000000001 0.0
0.0022928932188134524 0.007707106781186548 0.0
0.0037071067811865477 0.007707106781186548 0.001
0.005 0.009000000000000001 0.001
0.0022928932188134524 0.007707106781186548 0.001
0.0022928932188134524 0.0062928932188134525 0.0
0.0022928932188134524 0.0062928932188134525 0.001
0.0037071067811865477 0.0062928932188134525 0.0
0.0037071067811865477 0.0062928932188134525 0.001
0.007707106781186548 0.007707106781186548 0.0
0.009000000000000001 0.009000000000000001 0.0
0.0062928932188134525 0.007707106781186548 0.0
0.007707106781186548 0.007707106781186548 0.001
0.009000000000000001 0.009000000000000001 0.001
0.0062928932188134525 0.007707106781186548 0.001
0.0062928932188134525 0.0062928932188134525 0.0
0.0062928932188134525 0.0062928932188134525 0.001
0.007707106781186548 0.0062928932188134525 0.0
0.007707106781186548 0.0062928932188134525 0.001

CELLS 64 576
8 0 1 2 3 4 5 6 7
8 3 2 8 9 7 6 10 11
8 9 8 12 13 11 10 14 15
8 13 12 1 0 15 14 5 4
8 16 17 1 18 19 20 5 21
8 18 1 12 22 21 5 14 23
8 22 12 24 25 23 14 26 27
8 25 24 17 16 27 26 20 19
8 28 29 17 30 31 32 20 33
8 30 17 24 34 33 20 26 35
8 34 24 36 37 35 26 38 39
8 37 36 29 28 39 38 32 31
8 40 41 29 42 43 44 32 45
8 42 29 36 46 45 32 38 47
8 46 36 48 49 47 38 50 51
8 49 48 41 40 51 50 44 43
8 52 53 54 55 56 57 58 59
8 55 54 2 60 59 58 6 61
8 60 2 1 62 61 6 5 63
8 62 1 53 52 63 5 57 56
8 64 65 53 66 67 68 57 69
8 66 53 1 70 69 57 5 71
8 70 1 17 72 71 5 20 73
8 72 17 65 64 73 20 68 67
8 74 75 65 76 77 78 68 79
8 76 65 17 80 79 68 20 81
8 80 17 29 82 81 20 32 83
8 82 29 75 74 83 32 78 77
8 84 85 75 86 87 88 78 89
8 86 75 29 90 89 78 32 91
8 90 29 41 92 91 32 44 93
8 92 41 85 84 93 44 88 87
8 94 95 96 97 98 99 100 101
8 97 96 54 102 101 100 58 103
8 102 54 53 104 103 58 57 105
8 104 53 95 94 105 57 99 98
8 106 107 95 108 109 110 99 111
8 108 95 53 112 111 99 57 113
8 112 53 65 114 113 57 68 115
8 114 65 107 106 115 68 110 109
8 116 117 107 118 119 120 110 121
8 118 107 65 122 121 110 68 123
8 122 65 75 124 123 68 78 125
8 124 75 117 116 125 78 120 119
8 126 127 117 128 129 130 120 131
8 128 117 75 132 131 120 78 133
8 132 75 85 134 133 78 88 135
8 134 85 127 126 135 88 130 129
8 136 137 138 139 140 141 142 143
8 139 138 96 144 143 142 100 145
8 144 96 95 146 145 100 99 147
8 146 95 137 136 147 99 141 140
8 148 149 137 150 151 152 141 153
8 150 137 95 154 153 141 99 155
8 154 95 107 156 155 99 110 157
8 156 107 149 148 157 110 152 151
8 158 159 149 160 161 162 152 163
8 160 149 107 164 163 152 110 165
8 164 107 117 166 165 110 120 167
8 166 117 159 158 167 120 162 161
8 168 169 159 170 171 172 162 173
8 170 159 117 174 173 162 120 175
8 174 117 127 176 175 120 130 177
8 176 127 169 168 177 130 172 171

CELL_TYPES 64
12
12
12
12
12
12
12
12
12
12
12
12
12
12
12
12
12
12
12
12
12
12
12
12
12
12
12
12
12
12
12
12
12
12
12
12
12
12
12
12
12
12
12
12
12
12
12
12
12
12
12
12
12
12
12
12
12
12
12
12
12
12
12
12

CELL_DATA 64
SCALARS block_ids float 1
LOOKUP_TABLE default
0
1
2
3
4
5
6
7
8
9
10
11
12
13
14
15
16
17
18
19
20
21
22
23
24
25
26
27
28
29
30
31
32
33
34
35
36
37
38
39
40
41
42
43
44
45
46
47
48
49
50
51
52
53
54
55
56
57
58
59
60
61
62
63
