# vtk DataFile Version 2.0
classy_blocks debug output
ASCII

DATASET UNSTRUCTURED_GRID
POINTS 104 float
-0.0032928932188134525 -0.0032928932188134525 0.0
-0.002 -0.002 0.0
-0.006 -0.0019999999999999996 0.0
-0.004707106781186548 -0.0032928932188134525 0.0
-0.0032928932188134525 -0.0032928932188134525 0.001
-0.002 -0.002 0.001
-0.006 -0.0019999999999999996 0.001
-0.004707106781186548 -0.0032928932188134525 0.001
-0.006 -0.006 0.0
-0.004707106781186548 -0.004707106781186548 0.0
-0.006 -0.006 0.001
-0.004707106781186548 -0.004707106781186548 0.001
-0.0020000000000000005 -0.006 0.0
-0.0032928932188134525 -0.004707106781186548 0.0
-0.0020000000000000005 -0.006 0.001
-0.0032928932188134525 -0.004707106781186548 0.001
0.0007071067811865476 -0.0032928932188134525 0.0
0.002 -0.002 0.0
-0.0007071067811865477 -0.0032928932188134525 0.0
0.0007071067811865476 -0.0032928932188134525 0.001
0.002 -0.002 0.001
-0.0007071067811865477 -0.0032928932188134525 0.001
-0.0007071067811865477 -0.004707106781186548 0.0
-0.0007071067811865477 -0.004707106781186548 0.001
0.0019999999999999996 -0.006 0.0
0.0007071067811865474 -0.004707106781186548 0.0
0.0019999999999999996 -0.006 0.001
0.0007071067811865474 -0.004707106781186548 0.001
0.004707106781186548 -0.0032928932188134525 0.0
0.006 -0.002 0.0
0.0032928932188134525 -0.0032928932188134525 0.0
0.004707106781186548 -0.0032928932188134525 0.001
0.006 -0.002 0.001
0.0032928932188134525 -0.0032928932188134525 0.001
0.0032928932188134525 -0.004707106781186548 0.0
0.0032928932188134525 -0.004707106781186548 0.001
0.006 -0.006 0.0
0.004707106781186548 -0.004707106781186548 0.0
0.006 -0.006 0.001
0.004707106781186548 -0.004707106781186548 0.001
-0.0032928932188134525 0.0007071067811865476 0.0
-0.002 0.002 0.0
-0.006 0.0020000000000000005 0.0
-0.004707106781186548 0.0007071067811865477 0.0
-0.0032928932188134525 0.0007071067811865476 0.001
-0.002 0.002 0.001
-0.006 0.0020000000000000005 0.001
-0.004707106781186548 0.0007071067811865477 0.001
-0.004707106781186548 -0.0007071067811865474 0.0
-0.004707106781186548 -0.0007071067811865474 0.001
-0.0032928932188134525 -0.0007071067811865477 0.0
-0.0032928932188134525 -0.0007071067811865477 0.001
0.0007071067811865476 0.0007071067811865476 0.0
0.002 0.002 0.0
-0.0007071067811865477 0.0007071067811865477 0.0
0.0007071067811865476 0.0007071067811865476 0.001
0.002 0.002 0.001
-0.0007071067811865477 0.0007071067811865477 0.001
-0.0007071067811865477 -0.0007071067811865474 0.0
-0.0007071067811865477 -0.0007071067811865474 0.001
0.0007071067811865474 -0.0007071067811865477 0.0
0.0007071067811865474 -0.0007071067811865477 0.001
0.004707106781186548 0.0007071067811865476 0.0
0.006 0.002 0.0
0.0032928932188134525 0.0007071067811865477 0.0
0.004707106781186548 0.0007071067811865476 0.001
0.006 0.002 0.001
0.0032928932188134525 0.0007071067811865477 0.001
0.0032928932188134525 -0.0007071067811865474 0.0
0.0032928932188134525 -0.0007071067811865474 0.001
0.004707106781186548 -0.0007071067811865477 0.0
0.004707106781186548 -0.0007071067811865477 0.001
-0.0032928932188134525 0.004707106781186548 0.0
-0.002 0.006 0.0
-0.006 0.006 0.0
-0.004707106781186548 0.004707106781186548 0.0
-0.0032928932188134525 0.004707106781186548 0.001
-0.002 0.006 0.001
-0.006 0.006 0.001
-0.004707106781186548 0.004707106781186548 0.001
-0.004707106781186548 0.0032928932188134525 0.0
-0.004707106781186548 0.0032928932188134525 0.001
-0.0032928932188134525 0.0032928932188134525 0.0
-0.0032928932188134525 0.0032928932188134525 0.001
0.0007071067811865476 0.004707106781186548 0.0
0.002 0.006 0.0
-0.0007071067811865477 0.004707106781186548 0.0
0.0007071067811865476 0.004707106781186548 0.001
0.002 0.006 0.001
-0.0007071067811865477 0.004707106781186548 0.001
-0.0007071067811865477 0.0032928932188134525 0.0
-0.0007071067811865477 0.0032928932188134525 0.001
0.0007071067811865474 0.0032928932188134525 0.0
0.0007071067811865474 0.0032928932188134525 0.001
0.004707106781186548 0.004707106781186548 0.0
0.006 0.006 0.0
0.0032928932188134525 0.004707106781186548 0.0
0.004707106781186548 0.004707106781186548 0.001
0.006 0.006 0.001
0.0032928932188134525 0.004707106781186548 0.001
0.0032928932188134525 0.0032928932188134525 0.0
0.0032928932188134525 0.0032928932188134525 0.001
0.004707106781186548 0.0032928932188134525 0.0
0.004707106781186548 0.0032928932188134525 0.001

CELLS 36 324
8 0 1 2 3 4 5 6 7
8 3 2 8 9 7 6 10 11
8 9 8 12 13 11 10 14 15
8 13 12 1 0 15 14 5 4
8 16 17 1 18 19 20 5 21
8 18 1 12 22 21 5 14 23
8 22 12 24 25 23 14 26 27
8 25 24 17 16 27 26 20 19
8 28 29 17 30 31 32 20 33
8 30 17 24 34 33 20 26 35
8 34 24 36 37 35 26 38 39
8 37 36 29 28 39 38 32 31
8 40 41 42 43 44 45 46 47
8 43 42 2 48 47 46 6 49
8 48 2 1 50 49 6 5 51
8 50 1 41 40 51 5 45 44
8 52 53 41 54 55 56 45 57
8 54 41 1 58 57 45 5 59
8 58 1 17 60 59 5 20 61
8 60 17 53 52 61 20 56 55
8 62 63 53 64 65 66 56 67
8 64 53 17 68 67 56 20 69
8 68 17 29 70 69 20 32 71
8 70 29 63 62 71 32 66 65
8 72 73 74 75 76 77 78 79
8 75 74 42 80 79 78 46 81
8 80 42 41 82 81 46 45 83
8 82 41 73 72 83 45 77 76
8 84 85 73 86 87 88 77 89
8 86 73 41 90 89 77 45 91
8 90 41 53 92 91 45 56 93
8 92 53 85 84 93 56 88 87
8 94 95 85 96 97 98 88 99
8 96 85 53 100 99 88 56 101
8 100 53 63 102 101 56 66 103
8 102 63 95 94 103 66 98 97

CELL_TYPES 36
12
12
12
12
12
12
12
12
12
12
12
12
12
12
12
12
12
12
12
12
12
12
12
12
12
12
12
12
12
12
12
12
12
12
12
12

CELL_DATA 36
SCALARS block_ids float 1
LOOKUP_TABLE default
0
1
2
3
4
5
6
7
8
9
10
11
12
13
14
15
16
17
18
19
20
21
22
23
24
25
26
27
28
29
30
31
32
33
34
35
